  18  18   0   0
  0.5273802E+02  0.7403172E-09  0.7403172E-09  0.2000000E-08  0.5000000E-15
  1.000000000000000E-004
  CAR 
 unknown system                          
      7.29410675    -23.66833270 1000     -2.75629229      1.00000000
    -23.668  0.0000E+00  0.0000E+00  0.0000E+00  0.0000E+00
    -23.637  0.0000E+00  0.0000E+00  0.0000E+00  0.0000E+00
    -23.606  0.0000E+00  0.0000E+00  0.0000E+00  0.0000E+00
    -23.575  0.0000E+00  0.0000E+00  0.0000E+00  0.0000E+00
    -23.544  0.0000E+00  0.0000E+00  0.0000E+00  0.0000E+00
    -23.513  0.0000E+00  0.0000E+00  0.0000E+00  0.0000E+00
    -23.482  0.0000E+00  0.0000E+00  0.0000E+00  0.0000E+00
    -23.451  0.0000E+00  0.0000E+00  0.0000E+00  0.0000E+00
    -23.420  0.0000E+00  0.0000E+00  0.0000E+00  0.0000E+00
    -23.389  0.0000E+00  0.0000E+00  0.0000E+00  0.0000E+00
    -23.358  0.0000E+00  0.0000E+00  0.0000E+00  0.0000E+00
    -23.327  0.0000E+00  0.0000E+00  0.0000E+00  0.0000E+00
    -23.296  0.0000E+00  0.0000E+00  0.0000E+00  0.0000E+00
    -23.265  0.0000E+00  0.0000E+00  0.0000E+00  0.0000E+00
    -23.234  0.0000E+00  0.0000E+00  0.0000E+00  0.0000E+00
    -23.203  0.0000E+00  0.0000E+00  0.0000E+00  0.0000E+00
    -23.172  0.0000E+00  0.0000E+00  0.0000E+00  0.0000E+00
    -23.141  0.0000E+00  0.0000E+00  0.0000E+00  0.0000E+00
    -23.110  0.0000E+00  0.0000E+00  0.0000E+00  0.0000E+00
    -23.079  0.0000E+00  0.0000E+00  0.0000E+00  0.0000E+00
    -23.048  0.0000E+00  0.0000E+00  0.0000E+00  0.0000E+00
    -23.017  0.0000E+00  0.0000E+00  0.0000E+00  0.0000E+00
    -22.986  0.0000E+00  0.0000E+00  0.0000E+00  0.0000E+00
    -22.955  0.0000E+00  0.0000E+00  0.0000E+00  0.0000E+00
    -22.924  0.0000E+00  0.0000E+00  0.0000E+00  0.0000E+00
    -22.893  0.0000E+00  0.0000E+00  0.0000E+00  0.0000E+00
    -22.863  0.0000E+00  0.0000E+00  0.0000E+00  0.0000E+00
    -22.832  0.0000E+00  0.0000E+00  0.0000E+00  0.0000E+00
    -22.801  0.0000E+00  0.0000E+00  0.0000E+00  0.0000E+00
    -22.770  0.0000E+00  0.0000E+00  0.0000E+00  0.0000E+00
    -22.739  0.0000E+00  0.0000E+00  0.0000E+00  0.0000E+00
    -22.708  0.0000E+00  0.0000E+00  0.0000E+00  0.0000E+00
    -22.677  0.0000E+00  0.0000E+00  0.0000E+00  0.0000E+00
    -22.646  0.0000E+00  0.0000E+00  0.0000E+00  0.0000E+00
    -22.615  0.0000E+00  0.0000E+00  0.0000E+00  0.0000E+00
    -22.584  0.0000E+00  0.0000E+00  0.0000E+00  0.0000E+00
    -22.553  0.0000E+00  0.0000E+00  0.0000E+00  0.0000E+00
    -22.522  0.0000E+00  0.0000E+00  0.0000E+00  0.0000E+00
    -22.491  0.0000E+00  0.0000E+00  0.0000E+00  0.0000E+00
    -22.460  0.0000E+00  0.0000E+00  0.0000E+00  0.0000E+00
    -22.429  0.0000E+00  0.0000E+00  0.0000E+00  0.0000E+00
    -22.398  0.0000E+00  0.0000E+00  0.0000E+00  0.0000E+00
    -22.367  0.0000E+00  0.0000E+00  0.0000E+00  0.0000E+00
    -22.336  0.0000E+00  0.0000E+00  0.0000E+00  0.0000E+00
    -22.305  0.0000E+00  0.0000E+00  0.0000E+00  0.0000E+00
    -22.274  0.0000E+00  0.0000E+00  0.0000E+00  0.0000E+00
    -22.243  0.1360E+01  0.1360E+01  0.2488E-01  0.2488E-01
    -22.212  0.1380E+01  0.1380E+01  0.6776E-01  0.6776E-01
    -22.181  0.1384E+01  0.1384E+01  0.1106E+00  0.1106E+00
    -22.150  0.1385E+01  0.1385E+01  0.1535E+00  0.1535E+00
    -22.119  0.1383E+01  0.1383E+01  0.1964E+00  0.1964E+00
    -22.088  0.1380E+01  0.1380E+01  0.2393E+00  0.2393E+00
    -22.057  0.1382E+01  0.1382E+01  0.2822E+00  0.2822E+00
    -22.026  0.1384E+01  0.1384E+01  0.3251E+00  0.3251E+00
    -21.995  0.1385E+01  0.1385E+01  0.3681E+00  0.3681E+00
    -21.964  0.1384E+01  0.1384E+01  0.4111E+00  0.4111E+00
    -21.933  0.1385E+01  0.1385E+01  0.4541E+00  0.4541E+00
    -21.902  0.1385E+01  0.1385E+01  0.4971E+00  0.4971E+00
    -21.871  0.1389E+01  0.1389E+01  0.5401E+00  0.5401E+00
    -21.840  0.1391E+01  0.1391E+01  0.5831E+00  0.5831E+00
    -21.809  0.1388E+01  0.1388E+01  0.6262E+00  0.6262E+00
    -21.778  0.1388E+01  0.1388E+01  0.6692E+00  0.6692E+00
    -21.747  0.1392E+01  0.1392E+01  0.7123E+00  0.7123E+00
    -21.716  0.1391E+01  0.1391E+01  0.7554E+00  0.7554E+00
    -21.685  0.1390E+01  0.1390E+01  0.7985E+00  0.7985E+00
    -21.654  0.1393E+01  0.1393E+01  0.8417E+00  0.8417E+00
    -21.623  0.1477E+01  0.1477E+01  0.8868E+00  0.8868E+00
    -21.592  0.1269E+01  0.1269E+01  0.9273E+00  0.9273E+00
    -21.561  0.1224E+01  0.1224E+01  0.9713E+00  0.9713E+00
    -21.530  0.1257E+01  0.1257E+01  0.1014E+01  0.1014E+01
    -21.499  0.1323E+01  0.1323E+01  0.1057E+01  0.1057E+01
    -21.468  0.1332E+01  0.1332E+01  0.1101E+01  0.1101E+01
    -21.437  0.1338E+01  0.1338E+01  0.1145E+01  0.1145E+01
    -21.406  0.1343E+01  0.1343E+01  0.1187E+01  0.1187E+01
    -21.375  0.1346E+01  0.1346E+01  0.1231E+01  0.1231E+01
    -21.344  0.1351E+01  0.1351E+01  0.1273E+01  0.1273E+01
    -21.313  0.1353E+01  0.1353E+01  0.1318E+01  0.1318E+01
    -21.282  0.1358E+01  0.1358E+01  0.1360E+01  0.1360E+01
    -21.251  0.1642E+01  0.1642E+01  0.1405E+01  0.1405E+01
    -21.220  0.1363E+01  0.1363E+01  0.1447E+01  0.1447E+01
    -21.189  0.1520E+01  0.1520E+01  0.1490E+01  0.1490E+01
    -21.158  0.1367E+01  0.1367E+01  0.1535E+01  0.1535E+01
    -21.127  0.1367E+01  0.1367E+01  0.1577E+01  0.1577E+01
    -21.096  0.1419E+01  0.1419E+01  0.1621E+01  0.1621E+01
    -21.065  0.1370E+01  0.1370E+01  0.1665E+01  0.1665E+01
    -21.034  0.1373E+01  0.1373E+01  0.1707E+01  0.1707E+01
    -21.003  0.1417E+01  0.1417E+01  0.1751E+01  0.1751E+01
    -20.972  0.1375E+01  0.1375E+01  0.1795E+01  0.1795E+01
    -20.941  0.1380E+01  0.1380E+01  0.1838E+01  0.1838E+01
    -20.910  0.1414E+01  0.1414E+01  0.1882E+01  0.1882E+01
    -20.879  0.1381E+01  0.1381E+01  0.1926E+01  0.1926E+01
    -20.848  0.1381E+01  0.1381E+01  0.1969E+01  0.1969E+01
    -20.817  0.1445E+01  0.1445E+01  0.2012E+01  0.2012E+01
    -20.786  0.1431E+01  0.1431E+01  0.2056E+01  0.2056E+01
    -20.755  0.1385E+01  0.1385E+01  0.2100E+01  0.2100E+01
    -20.724  0.1388E+01  0.1388E+01  0.2143E+01  0.2143E+01
    -20.693  0.1420E+01  0.1420E+01  0.2187E+01  0.2187E+01
    -20.662  0.1439E+01  0.1439E+01  0.2231E+01  0.2231E+01
    -20.631  0.1389E+01  0.1389E+01  0.2275E+01  0.2275E+01
    -20.600  0.1391E+01  0.1391E+01  0.2318E+01  0.2318E+01
    -20.569  0.1420E+01  0.1420E+01  0.2362E+01  0.2362E+01
    -20.538  0.1435E+01  0.1435E+01  0.2406E+01  0.2406E+01
    -20.507  0.1394E+01  0.1394E+01  0.2450E+01  0.2450E+01
    -20.476  0.1395E+01  0.1395E+01  0.2493E+01  0.2493E+01
    -20.445  0.1423E+01  0.1423E+01  0.2537E+01  0.2537E+01
    -20.414  0.1430E+01  0.1430E+01  0.2581E+01  0.2581E+01
    -20.383  0.1398E+01  0.1398E+01  0.2625E+01  0.2625E+01
    -20.352  0.1399E+01  0.1399E+01  0.2669E+01  0.2669E+01
    -20.321  0.1434E+01  0.1434E+01  0.2713E+01  0.2713E+01
    -20.290  0.1422E+01  0.1422E+01  0.2757E+01  0.2757E+01
    -20.259  0.1440E+01  0.1440E+01  0.2801E+01  0.2801E+01
    -20.228  0.1404E+01  0.1404E+01  0.2845E+01  0.2845E+01
    -20.197  0.1441E+01  0.1441E+01  0.2889E+01  0.2889E+01
    -20.166  0.1428E+01  0.1428E+01  0.2933E+01  0.2933E+01
    -20.135  0.1430E+01  0.1430E+01  0.2977E+01  0.2977E+01
    -20.104  0.1407E+01  0.1407E+01  0.3022E+01  0.3022E+01
    -20.073  0.1409E+01  0.1409E+01  0.3065E+01  0.3065E+01
    -20.042  0.1440E+01  0.1440E+01  0.3109E+01  0.3109E+01
    -20.011  0.1429E+01  0.1429E+01  0.3154E+01  0.3154E+01
    -19.980  0.1435E+01  0.1435E+01  0.3198E+01  0.3198E+01
    -19.949  0.1412E+01  0.1412E+01  0.3243E+01  0.3243E+01
    -19.918  0.1413E+01  0.1413E+01  0.3286E+01  0.3286E+01
    -19.887  0.1443E+01  0.1443E+01  0.3330E+01  0.3330E+01
    -19.856  0.1433E+01  0.1433E+01  0.3375E+01  0.3375E+01
    -19.825  0.1436E+01  0.1436E+01  0.3419E+01  0.3419E+01
    -19.794  0.1446E+01  0.1446E+01  0.3464E+01  0.3464E+01
    -19.763  0.1419E+01  0.1419E+01  0.3508E+01  0.3508E+01
    -19.732  0.1542E+01  0.1542E+01  0.3552E+01  0.3552E+01
    -19.701  0.1495E+01  0.1495E+01  0.3601E+01  0.3601E+01
    -19.670  0.1247E+01  0.1247E+01  0.3643E+01  0.3643E+01
    -19.639  0.1401E+01  0.1401E+01  0.3684E+01  0.3684E+01
    -19.608  0.1468E+01  0.1468E+01  0.3730E+01  0.3730E+01
    -19.577  0.1474E+01  0.1474E+01  0.3774E+01  0.3774E+01
    -19.546  0.1343E+01  0.1343E+01  0.3820E+01  0.3820E+01
    -19.515  0.1560E+01  0.1560E+01  0.3865E+01  0.3865E+01
    -19.484  0.1423E+01  0.1423E+01  0.3908E+01  0.3908E+01
    -19.453  0.1455E+01  0.1455E+01  0.3954E+01  0.3954E+01
    -19.422  0.1473E+01  0.1473E+01  0.3998E+01  0.3998E+01
    -19.391  0.1481E+01  0.1481E+01  0.4043E+01  0.4043E+01
    -19.360  0.1521E+01  0.1521E+01  0.4088E+01  0.4088E+01
    -19.329  0.1407E+01  0.1407E+01  0.4132E+01  0.4132E+01
    -19.298  0.1481E+01  0.1481E+01  0.4177E+01  0.4177E+01
    -19.267  0.1421E+01  0.1421E+01  0.4223E+01  0.4223E+01
    -19.236  0.1497E+01  0.1497E+01  0.4267E+01  0.4267E+01
    -19.205  0.1426E+01  0.1426E+01  0.4313E+01  0.4313E+01
    -19.174  0.1424E+01  0.1424E+01  0.4357E+01  0.4357E+01
    -19.143  0.1428E+01  0.1428E+01  0.4402E+01  0.4402E+01
    -19.112  0.1427E+01  0.1427E+01  0.4448E+01  0.4448E+01
    -19.081  0.1433E+01  0.1433E+01  0.4492E+01  0.4492E+01
    -19.050  0.1498E+01  0.1498E+01  0.4538E+01  0.4538E+01
    -19.019  0.1437E+01  0.1437E+01  0.4583E+01  0.4583E+01
    -18.988  0.1435E+01  0.1435E+01  0.4628E+01  0.4628E+01
    -18.957  0.1434E+01  0.1434E+01  0.4672E+01  0.4672E+01
    -18.926  0.1437E+01  0.1437E+01  0.4719E+01  0.4719E+01
    -18.895  0.1443E+01  0.1443E+01  0.4764E+01  0.4764E+01
    -18.864  0.1428E+01  0.1428E+01  0.4809E+01  0.4809E+01
    -18.833  0.1430E+01  0.1430E+01  0.4856E+01  0.4856E+01
    -18.802  0.1447E+01  0.1447E+01  0.4901E+01  0.4901E+01
    -18.771  0.1446E+01  0.1446E+01  0.4945E+01  0.4945E+01
    -18.740  0.1448E+01  0.1448E+01  0.4990E+01  0.4990E+01
    -18.709  0.1452E+01  0.1452E+01  0.5038E+01  0.5038E+01
    -18.678  0.1440E+01  0.1440E+01  0.5083E+01  0.5083E+01
    -18.647  0.1443E+01  0.1443E+01  0.5128E+01  0.5128E+01
    -18.616  0.1731E+01  0.1731E+01  0.5174E+01  0.5174E+01
    -18.585  0.1460E+01  0.1460E+01  0.5221E+01  0.5221E+01
    -18.554  0.1459E+01  0.1459E+01  0.5266E+01  0.5266E+01
    -18.523  0.1464E+01  0.1464E+01  0.5312E+01  0.5312E+01
    -18.492  0.1667E+01  0.1667E+01  0.5358E+01  0.5358E+01
    -18.461  0.1456E+01  0.1456E+01  0.5405E+01  0.5405E+01
    -18.430  0.1459E+01  0.1459E+01  0.5450E+01  0.5450E+01
    -18.399  0.1476E+01  0.1476E+01  0.5496E+01  0.5496E+01
    -18.368  0.1475E+01  0.1475E+01  0.5542E+01  0.5542E+01
    -18.337  0.1631E+01  0.1631E+01  0.5590E+01  0.5590E+01
    -18.306  0.1481E+01  0.1481E+01  0.5636E+01  0.5636E+01
    -18.275  0.1486E+01  0.1486E+01  0.5682E+01  0.5682E+01
    -18.244  0.1474E+01  0.1474E+01  0.5728E+01  0.5728E+01
    -18.213  0.1511E+01  0.1511E+01  0.5775E+01  0.5775E+01
    -18.182  0.1493E+01  0.1493E+01  0.5823E+01  0.5823E+01
    -18.152  0.1494E+01  0.1494E+01  0.5869E+01  0.5869E+01
    -18.121  0.1495E+01  0.1495E+01  0.5915E+01  0.5915E+01
    -18.090  0.1501E+01  0.1501E+01  0.5962E+01  0.5962E+01
    -18.059  0.1554E+01  0.1554E+01  0.6010E+01  0.6010E+01
    -18.028  0.1496E+01  0.1496E+01  0.6058E+01  0.6058E+01
    -17.997  0.1500E+01  0.1500E+01  0.6104E+01  0.6104E+01
    -17.966  0.1516E+01  0.1516E+01  0.6151E+01  0.6151E+01
    -17.935  0.1619E+01  0.1619E+01  0.6198E+01  0.6198E+01
    -17.904  0.1713E+01  0.1713E+01  0.6249E+01  0.6249E+01
    -17.873  0.1945E+01  0.1945E+01  0.6305E+01  0.6305E+01
    -17.842  0.1219E+01  0.1219E+01  0.6354E+01  0.6354E+01
    -17.811  0.1238E+01  0.1238E+01  0.6389E+01  0.6389E+01
    -17.780  0.1411E+01  0.1411E+01  0.6434E+01  0.6434E+01
    -17.749  0.1858E+01  0.1858E+01  0.6484E+01  0.6484E+01
    -17.718  0.1442E+01  0.1442E+01  0.6533E+01  0.6533E+01
    -17.687  0.1666E+01  0.1666E+01  0.6580E+01  0.6580E+01
    -17.656  0.1563E+01  0.1563E+01  0.6636E+01  0.6636E+01
    -17.625  0.1473E+01  0.1473E+01  0.6683E+01  0.6683E+01
    -17.594  0.1468E+01  0.1468E+01  0.6729E+01  0.6729E+01
    -17.563  0.1587E+01  0.1587E+01  0.6778E+01  0.6778E+01
    -17.532  0.1714E+01  0.1714E+01  0.6830E+01  0.6830E+01
    -17.501  0.1703E+01  0.1703E+01  0.6884E+01  0.6884E+01
    -17.470  0.1595E+01  0.1595E+01  0.6933E+01  0.6933E+01
    -17.439  0.1565E+01  0.1565E+01  0.6983E+01  0.6983E+01
    -17.408  0.1628E+01  0.1628E+01  0.7032E+01  0.7032E+01
    -17.377  0.1744E+01  0.1744E+01  0.7082E+01  0.7082E+01
    -17.346  0.1846E+01  0.1846E+01  0.7135E+01  0.7135E+01
    -17.315  0.1750E+01  0.1750E+01  0.7190E+01  0.7190E+01
    -17.284  0.1730E+01  0.1730E+01  0.7245E+01  0.7245E+01
    -17.253  0.1709E+01  0.1709E+01  0.7300E+01  0.7300E+01
    -17.222  0.1737E+01  0.1737E+01  0.7353E+01  0.7353E+01
    -17.191  0.1783E+01  0.1783E+01  0.7408E+01  0.7408E+01
    -17.160  0.1809E+01  0.1809E+01  0.7464E+01  0.7464E+01
    -17.129  0.1965E+01  0.1965E+01  0.7523E+01  0.7523E+01
    -17.098  0.2078E+01  0.2078E+01  0.7586E+01  0.7586E+01
    -17.067  0.2284E+01  0.2284E+01  0.7654E+01  0.7654E+01
    -17.036  0.2890E+01  0.2890E+01  0.7731E+01  0.7731E+01
    -17.005  0.2223E+01  0.2223E+01  0.7813E+01  0.7813E+01
    -16.974  0.1932E+01  0.1932E+01  0.7877E+01  0.7877E+01
    -16.943  0.1710E+01  0.1710E+01  0.7934E+01  0.7934E+01
    -16.912  0.1656E+01  0.1656E+01  0.7986E+01  0.7986E+01
    -16.881  0.1571E+01  0.1571E+01  0.8036E+01  0.8036E+01
    -16.850  0.1370E+01  0.1370E+01  0.8085E+01  0.8085E+01
    -16.819  0.1374E+01  0.1374E+01  0.8129E+01  0.8129E+01
    -16.788  0.1319E+01  0.1319E+01  0.8172E+01  0.8172E+01
    -16.757  0.1268E+01  0.1268E+01  0.8212E+01  0.8212E+01
    -16.726  0.1219E+01  0.1219E+01  0.8251E+01  0.8251E+01
    -16.695  0.1155E+01  0.1155E+01  0.8288E+01  0.8288E+01
    -16.664  0.1137E+01  0.1137E+01  0.8324E+01  0.8324E+01
    -16.633  0.1086E+01  0.1086E+01  0.8359E+01  0.8359E+01
    -16.602  0.1051E+01  0.1051E+01  0.8391E+01  0.8391E+01
    -16.571  0.1012E+01  0.1012E+01  0.8424E+01  0.8424E+01
    -16.540  0.9602E+00  0.9602E+00  0.8454E+01  0.8454E+01
    -16.509  0.9343E+00  0.9343E+00  0.8483E+01  0.8483E+01
    -16.478  0.9077E+00  0.9077E+00  0.8512E+01  0.8512E+01
    -16.447  0.8657E+00  0.8657E+00  0.8539E+01  0.8539E+01
    -16.416  0.8328E+00  0.8328E+00  0.8566E+01  0.8566E+01
    -16.385  0.8154E+00  0.8154E+00  0.8591E+01  0.8591E+01
    -16.354  0.7774E+00  0.7774E+00  0.8616E+01  0.8616E+01
    -16.323  0.7397E+00  0.7397E+00  0.8639E+01  0.8639E+01
    -16.292  0.7332E+00  0.7332E+00  0.8662E+01  0.8662E+01
    -16.261  0.6942E+00  0.6942E+00  0.8684E+01  0.8684E+01
    -16.230  0.6561E+00  0.6561E+00  0.8705E+01  0.8705E+01
    -16.199  0.6425E+00  0.6425E+00  0.8725E+01  0.8725E+01
    -16.168  0.6158E+00  0.6158E+00  0.8745E+01  0.8745E+01
    -16.137  0.5893E+00  0.5893E+00  0.8763E+01  0.8763E+01
    -16.106  0.5638E+00  0.5638E+00  0.8781E+01  0.8781E+01
    -16.075  0.5457E+00  0.5457E+00  0.8798E+01  0.8798E+01
    -16.044  0.5220E+00  0.5220E+00  0.8815E+01  0.8815E+01
    -16.013  0.4888E+00  0.4888E+00  0.8830E+01  0.8830E+01
    -15.982  0.4732E+00  0.4732E+00  0.8845E+01  0.8845E+01
    -15.951  0.1374E+01  0.1374E+01  0.8883E+01  0.8883E+01
    -15.920  0.1504E+01  0.1504E+01  0.8929E+01  0.8929E+01
    -15.889  0.1651E+01  0.1651E+01  0.8975E+01  0.8975E+01
    -15.858  0.1525E+01  0.1525E+01  0.9020E+01  0.9020E+01
    -15.827  0.1478E+01  0.1478E+01  0.9066E+01  0.9066E+01
    -15.796  0.1292E+01  0.1292E+01  0.9113E+01  0.9113E+01
    -15.765  0.1565E+01  0.1566E+01  0.9158E+01  0.9158E+01
    -15.734  0.1467E+01  0.1467E+01  0.9205E+01  0.9205E+01
    -15.703  0.1439E+01  0.1439E+01  0.9250E+01  0.9250E+01
    -15.672  0.1519E+01  0.1519E+01  0.9296E+01  0.9296E+01
    -15.641  0.1467E+01  0.1467E+01  0.9342E+01  0.9342E+01
    -15.610  0.1520E+01  0.1520E+01  0.9388E+01  0.9388E+01
    -15.579  0.1461E+01  0.1461E+01  0.9434E+01  0.9434E+01
    -15.548  0.1486E+01  0.1486E+01  0.9479E+01  0.9479E+01
    -15.517  0.1505E+01  0.1505E+01  0.9525E+01  0.9525E+01
    -15.486  0.1503E+01  0.1503E+01  0.9571E+01  0.9571E+01
    -15.455  0.1471E+01  0.1471E+01  0.9617E+01  0.9617E+01
    -15.424  0.1492E+01  0.1492E+01  0.9663E+01  0.9663E+01
    -15.393  0.1479E+01  0.1479E+01  0.9710E+01  0.9709E+01
    -15.362  0.1474E+01  0.1474E+01  0.9755E+01  0.9755E+01
    -15.331  0.1521E+01  0.1521E+01  0.9802E+01  0.9802E+01
    -15.300  0.1601E+01  0.1601E+01  0.9850E+01  0.9850E+01
    -15.269  0.1686E+01  0.1686E+01  0.9901E+01  0.9901E+01
    -15.238  0.1765E+01  0.1765E+01  0.9954E+01  0.9954E+01
    -15.207  0.1899E+01  0.1899E+01  0.1001E+02  0.1001E+02
    -15.176  0.1956E+01  0.1956E+01  0.1007E+02  0.1007E+02
    -15.145  0.2249E+01  0.2249E+01  0.1013E+02  0.1013E+02
    -15.114  0.3350E+01  0.3349E+01  0.1021E+02  0.1021E+02
    -15.083  0.2286E+01  0.2286E+01  0.1029E+02  0.1029E+02
    -15.052  0.2102E+01  0.2102E+01  0.1036E+02  0.1036E+02
    -15.021  0.1991E+01  0.1991E+01  0.1042E+02  0.1042E+02
    -14.990  0.1948E+01  0.1948E+01  0.1048E+02  0.1048E+02
    -14.959  0.1860E+01  0.1860E+01  0.1054E+02  0.1054E+02
    -14.928  0.1826E+01  0.1826E+01  0.1060E+02  0.1060E+02
    -14.897  0.1795E+01  0.1795E+01  0.1065E+02  0.1065E+02
    -14.866  0.1776E+01  0.1776E+01  0.1071E+02  0.1071E+02
    -14.835  0.1747E+01  0.1747E+01  0.1076E+02  0.1076E+02
    -14.804  0.1722E+01  0.1722E+01  0.1082E+02  0.1082E+02
    -14.773  0.1696E+01  0.1696E+01  0.1087E+02  0.1087E+02
    -14.742  0.1682E+01  0.1682E+01  0.1092E+02  0.1092E+02
    -14.711  0.1624E+01  0.1624E+01  0.1097E+02  0.1097E+02
    -14.680  0.1658E+01  0.1658E+01  0.1103E+02  0.1103E+02
    -14.649  0.1628E+01  0.1628E+01  0.1108E+02  0.1108E+02
    -14.618  0.1577E+01  0.1577E+01  0.1113E+02  0.1113E+02
    -14.587  0.1593E+01  0.1593E+01  0.1118E+02  0.1118E+02
    -14.556  0.1574E+01  0.1574E+01  0.1122E+02  0.1122E+02
    -14.525  0.1559E+01  0.1559E+01  0.1127E+02  0.1127E+02
    -14.494  0.1565E+01  0.1565E+01  0.1132E+02  0.1132E+02
    -14.463  0.1515E+01  0.1515E+01  0.1137E+02  0.1137E+02
    -14.432  0.1513E+01  0.1513E+01  0.1142E+02  0.1142E+02
    -14.401  0.1481E+01  0.1481E+01  0.1146E+02  0.1146E+02
    -14.370  0.1492E+01  0.1492E+01  0.1151E+02  0.1151E+02
    -14.339  0.1486E+01  0.1486E+01  0.1155E+02  0.1155E+02
    -14.308  0.1434E+01  0.1434E+01  0.1160E+02  0.1160E+02
    -14.277  0.1528E+01  0.1528E+01  0.1165E+02  0.1165E+02
    -14.246  0.1642E+01  0.1641E+01  0.1169E+02  0.1169E+02
    -14.215  0.2079E+01  0.2079E+01  0.1176E+02  0.1176E+02
    -14.184  0.9501E+00  0.9502E+00  0.1181E+02  0.1181E+02
    -14.153  0.5287E+00  0.5287E+00  0.1182E+02  0.1182E+02
    -14.122  0.7775E+00  0.7774E+00  0.1184E+02  0.1184E+02
    -14.091  0.1946E+01  0.1946E+01  0.1188E+02  0.1188E+02
    -14.060  0.1765E+01  0.1765E+01  0.1195E+02  0.1195E+02
    -14.029  0.1432E+01  0.1432E+01  0.1200E+02  0.1200E+02
    -13.998  0.1379E+01  0.1379E+01  0.1204E+02  0.1204E+02
    -13.967  0.1349E+01  0.1349E+01  0.1208E+02  0.1208E+02
    -13.936  0.1341E+01  0.1341E+01  0.1212E+02  0.1212E+02
    -13.905  0.1325E+01  0.1325E+01  0.1216E+02  0.1216E+02
    -13.874  0.1316E+01  0.1316E+01  0.1221E+02  0.1221E+02
    -13.843  0.1331E+01  0.1331E+01  0.1225E+02  0.1225E+02
    -13.812  0.1319E+01  0.1319E+01  0.1229E+02  0.1229E+02
    -13.781  0.1308E+01  0.1308E+01  0.1233E+02  0.1233E+02
    -13.750  0.1299E+01  0.1299E+01  0.1237E+02  0.1237E+02
    -13.719  0.1297E+01  0.1297E+01  0.1241E+02  0.1241E+02
    -13.688  0.1275E+01  0.1275E+01  0.1245E+02  0.1245E+02
    -13.657  0.1267E+01  0.1267E+01  0.1249E+02  0.1249E+02
    -13.626  0.1249E+01  0.1249E+01  0.1253E+02  0.1253E+02
    -13.595  0.1260E+01  0.1260E+01  0.1257E+02  0.1257E+02
    -13.564  0.1259E+01  0.1259E+01  0.1261E+02  0.1261E+02
    -13.533  0.1245E+01  0.1245E+01  0.1264E+02  0.1264E+02
    -13.502  0.1237E+01  0.1237E+01  0.1268E+02  0.1268E+02
    -13.471  0.1233E+01  0.1233E+01  0.1272E+02  0.1272E+02
    -13.440  0.1227E+01  0.1227E+01  0.1276E+02  0.1276E+02
    -13.410  0.1208E+01  0.1208E+01  0.1280E+02  0.1280E+02
    -13.379  0.1191E+01  0.1191E+01  0.1283E+02  0.1283E+02
    -13.348  0.1183E+01  0.1183E+01  0.1287E+02  0.1287E+02
    -13.317  0.1191E+01  0.1191E+01  0.1291E+02  0.1291E+02
    -13.286  0.1663E+01  0.1663E+01  0.1295E+02  0.1295E+02
    -13.255  0.1584E+01  0.1584E+01  0.1300E+02  0.1300E+02
    -13.224  0.1643E+01  0.1643E+01  0.1305E+02  0.1305E+02
    -13.193  0.1731E+01  0.1731E+01  0.1310E+02  0.1310E+02
    -13.162  0.1627E+01  0.1627E+01  0.1315E+02  0.1315E+02
    -13.131  0.1326E+01  0.1326E+01  0.1320E+02  0.1320E+02
    -13.100  0.1849E+01  0.1849E+01  0.1324E+02  0.1324E+02
    -13.069  0.1492E+01  0.1492E+01  0.1329E+02  0.1329E+02
    -13.038  0.1858E+01  0.1858E+01  0.1334E+02  0.1334E+02
    -13.007  0.1709E+01  0.1709E+01  0.1339E+02  0.1339E+02
    -12.976  0.1596E+01  0.1596E+01  0.1345E+02  0.1345E+02
    -12.945  0.1589E+01  0.1589E+01  0.1349E+02  0.1349E+02
    -12.914  0.1642E+01  0.1642E+01  0.1355E+02  0.1355E+02
    -12.883  0.1613E+01  0.1613E+01  0.1360E+02  0.1360E+02
    -12.852  0.1653E+01  0.1653E+01  0.1365E+02  0.1365E+02
    -12.821  0.1614E+01  0.1614E+01  0.1370E+02  0.1370E+02
    -12.790  0.1638E+01  0.1638E+01  0.1375E+02  0.1375E+02
    -12.759  0.1625E+01  0.1625E+01  0.1380E+02  0.1380E+02
    -12.728  0.1615E+01  0.1615E+01  0.1385E+02  0.1385E+02
    -12.697  0.1642E+01  0.1642E+01  0.1390E+02  0.1390E+02
    -12.666  0.1605E+01  0.1605E+01  0.1395E+02  0.1395E+02
    -12.635  0.1656E+01  0.1656E+01  0.1400E+02  0.1400E+02
    -12.604  0.1686E+01  0.1686E+01  0.1405E+02  0.1405E+02
    -12.573  0.1651E+01  0.1651E+01  0.1410E+02  0.1410E+02
    -12.542  0.1637E+01  0.1637E+01  0.1416E+02  0.1416E+02
    -12.511  0.1645E+01  0.1645E+01  0.1421E+02  0.1421E+02
    -12.480  0.1644E+01  0.1644E+01  0.1426E+02  0.1426E+02
    -12.449  0.1791E+01  0.1791E+01  0.1431E+02  0.1431E+02
    -12.418  0.1703E+01  0.1703E+01  0.1437E+02  0.1437E+02
    -12.387  0.1528E+01  0.1528E+01  0.1442E+02  0.1442E+02
    -12.356  0.1501E+01  0.1501E+01  0.1447E+02  0.1447E+02
    -12.325  0.1690E+01  0.1690E+01  0.1451E+02  0.1451E+02
    -12.294  0.1675E+01  0.1675E+01  0.1457E+02  0.1457E+02
    -12.263  0.1593E+01  0.1593E+01  0.1462E+02  0.1462E+02
    -12.232  0.1631E+01  0.1631E+01  0.1467E+02  0.1467E+02
    -12.201  0.1745E+01  0.1745E+01  0.1472E+02  0.1472E+02
    -12.170  0.1839E+01  0.1839E+01  0.1478E+02  0.1478E+02
    -12.139  0.1711E+01  0.1711E+01  0.1483E+02  0.1483E+02
    -12.108  0.1712E+01  0.1712E+01  0.1488E+02  0.1488E+02
    -12.077  0.1714E+01  0.1714E+01  0.1494E+02  0.1494E+02
    -12.046  0.1715E+01  0.1715E+01  0.1499E+02  0.1499E+02
    -12.015  0.1713E+01  0.1713E+01  0.1504E+02  0.1504E+02
    -11.984  0.1717E+01  0.1717E+01  0.1510E+02  0.1510E+02
    -11.953  0.1724E+01  0.1724E+01  0.1515E+02  0.1515E+02
    -11.922  0.1721E+01  0.1721E+01  0.1520E+02  0.1520E+02
    -11.891  0.1739E+01  0.1739E+01  0.1526E+02  0.1526E+02
    -11.860  0.1753E+01  0.1753E+01  0.1531E+02  0.1531E+02
    -11.829  0.1743E+01  0.1743E+01  0.1537E+02  0.1537E+02
    -11.798  0.1730E+01  0.1730E+01  0.1542E+02  0.1542E+02
    -11.767  0.1745E+01  0.1745E+01  0.1547E+02  0.1547E+02
    -11.736  0.1759E+01  0.1759E+01  0.1553E+02  0.1553E+02
    -11.705  0.1755E+01  0.1755E+01  0.1558E+02  0.1558E+02
    -11.674  0.1735E+01  0.1735E+01  0.1564E+02  0.1564E+02
    -11.643  0.1769E+01  0.1769E+01  0.1569E+02  0.1569E+02
    -11.612  0.1778E+01  0.1778E+01  0.1574E+02  0.1574E+02
    -11.581  0.1799E+01  0.1799E+01  0.1580E+02  0.1580E+02
    -11.550  0.1805E+01  0.1805E+01  0.1586E+02  0.1586E+02
    -11.519  0.1812E+01  0.1812E+01  0.1591E+02  0.1591E+02
    -11.488  0.1774E+01  0.1774E+01  0.1597E+02  0.1597E+02
    -11.457  0.1776E+01  0.1776E+01  0.1602E+02  0.1602E+02
    -11.426  0.1818E+01  0.1818E+01  0.1608E+02  0.1608E+02
    -11.395  0.1813E+01  0.1813E+01  0.1613E+02  0.1613E+02
    -11.364  0.1798E+01  0.1798E+01  0.1619E+02  0.1619E+02
    -11.333  0.1809E+01  0.1809E+01  0.1625E+02  0.1625E+02
    -11.302  0.1820E+01  0.1820E+01  0.1630E+02  0.1630E+02
    -11.271  0.1853E+01  0.1853E+01  0.1636E+02  0.1636E+02
    -11.240  0.1849E+01  0.1849E+01  0.1642E+02  0.1642E+02
    -11.209  0.1851E+01  0.1851E+01  0.1647E+02  0.1647E+02
    -11.178  0.1854E+01  0.1854E+01  0.1653E+02  0.1653E+02
    -11.147  0.1859E+01  0.1859E+01  0.1659E+02  0.1659E+02
    -11.116  0.1879E+01  0.1879E+01  0.1665E+02  0.1665E+02
    -11.085  0.1963E+01  0.1963E+01  0.1671E+02  0.1671E+02
    -11.054  0.1969E+01  0.1969E+01  0.1677E+02  0.1677E+02
    -11.023  0.1661E+01  0.1661E+01  0.1682E+02  0.1682E+02
    -10.992  0.1912E+01  0.1913E+01  0.1688E+02  0.1688E+02
    -10.961  0.1960E+01  0.1960E+01  0.1693E+02  0.1693E+02
    -10.930  0.2057E+01  0.2057E+01  0.1700E+02  0.1700E+02
    -10.899  0.1792E+01  0.1792E+01  0.1705E+02  0.1705E+02
    -10.868  0.1988E+01  0.1988E+01  0.1712E+02  0.1712E+02
    -10.837  0.2131E+01  0.2131E+01  0.1718E+02  0.1718E+02
    -10.806  0.1985E+01  0.1985E+01  0.1724E+02  0.1724E+02
    -10.775  0.1900E+01  0.1900E+01  0.1730E+02  0.1730E+02
    -10.744  0.1689E+01  0.1689E+01  0.1735E+02  0.1735E+02
    -10.713  0.1886E+01  0.1886E+01  0.1741E+02  0.1741E+02
    -10.682  0.1937E+01  0.1937E+01  0.1747E+02  0.1747E+02
    -10.651  0.1956E+01  0.1956E+01  0.1753E+02  0.1753E+02
    -10.620  0.2001E+01  0.2001E+01  0.1760E+02  0.1760E+02
    -10.589  0.2023E+01  0.2023E+01  0.1766E+02  0.1766E+02
    -10.558  0.2166E+01  0.2166E+01  0.1772E+02  0.1772E+02
    -10.527  0.2632E+01  0.2632E+01  0.1779E+02  0.1779E+02
    -10.496  0.1938E+01  0.1938E+01  0.1785E+02  0.1785E+02
    -10.465  0.2060E+01  0.2060E+01  0.1791E+02  0.1791E+02
    -10.434  0.2015E+01  0.2015E+01  0.1797E+02  0.1797E+02
    -10.403  0.2008E+01  0.2008E+01  0.1804E+02  0.1804E+02
    -10.372  0.2121E+01  0.2121E+01  0.1810E+02  0.1810E+02
    -10.341  0.3231E+01  0.3231E+01  0.1819E+02  0.1819E+02
    -10.310  0.3306E+01  0.3306E+01  0.1829E+02  0.1829E+02
    -10.279  0.3505E+01  0.3505E+01  0.1840E+02  0.1840E+02
    -10.248  0.3227E+01  0.3227E+01  0.1850E+02  0.1850E+02
    -10.217  0.3348E+01  0.3348E+01  0.1860E+02  0.1860E+02
    -10.186  0.3304E+01  0.3304E+01  0.1870E+02  0.1870E+02
    -10.155  0.3172E+01  0.3172E+01  0.1880E+02  0.1880E+02
    -10.124  0.3274E+01  0.3274E+01  0.1891E+02  0.1891E+02
    -10.093  0.3368E+01  0.3368E+01  0.1901E+02  0.1901E+02
    -10.062  0.3378E+01  0.3378E+01  0.1911E+02  0.1911E+02
    -10.031  0.3440E+01  0.3440E+01  0.1922E+02  0.1922E+02
    -10.000  0.3566E+01  0.3566E+01  0.1933E+02  0.1933E+02
     -9.969  0.3381E+01  0.3380E+01  0.1945E+02  0.1945E+02
     -9.938  0.2754E+01  0.2754E+01  0.1954E+02  0.1954E+02
     -9.907  0.3639E+01  0.3639E+01  0.1964E+02  0.1964E+02
     -9.876  0.3669E+01  0.3669E+01  0.1975E+02  0.1975E+02
     -9.845  0.4696E+01  0.4697E+01  0.1988E+02  0.1988E+02
     -9.814  0.3368E+01  0.3368E+01  0.1999E+02  0.1999E+02
     -9.783  0.3868E+01  0.3868E+01  0.2010E+02  0.2010E+02
     -9.752  0.3205E+01  0.3205E+01  0.2020E+02  0.2020E+02
     -9.721  0.4300E+01  0.4299E+01  0.2030E+02  0.2030E+02
     -9.690  0.3600E+01  0.3600E+01  0.2042E+02  0.2042E+02
     -9.659  0.3758E+01  0.3758E+01  0.2053E+02  0.2053E+02
     -9.628  0.3747E+01  0.3747E+01  0.2066E+02  0.2066E+02
     -9.597  0.3599E+01  0.3599E+01  0.2077E+02  0.2077E+02
     -9.566  0.3712E+01  0.3712E+01  0.2089E+02  0.2089E+02
     -9.535  0.4084E+01  0.4084E+01  0.2101E+02  0.2101E+02
     -9.504  0.3983E+01  0.3984E+01  0.2113E+02  0.2113E+02
     -9.473  0.3518E+01  0.3518E+01  0.2126E+02  0.2126E+02
     -9.442  0.3996E+01  0.3996E+01  0.2137E+02  0.2137E+02
     -9.411  0.4550E+01  0.4550E+01  0.2150E+02  0.2150E+02
     -9.380  0.4297E+01  0.4296E+01  0.2163E+02  0.2163E+02
     -9.349  0.4247E+01  0.4247E+01  0.2176E+02  0.2176E+02
     -9.318  0.4391E+01  0.4391E+01  0.2190E+02  0.2190E+02
     -9.287  0.4505E+01  0.4505E+01  0.2204E+02  0.2204E+02
     -9.256  0.4809E+01  0.4808E+01  0.2218E+02  0.2218E+02
     -9.225  0.4959E+01  0.4959E+01  0.2233E+02  0.2233E+02
     -9.194  0.5572E+01  0.5572E+01  0.2249E+02  0.2249E+02
     -9.163  0.7317E+01  0.7317E+01  0.2269E+02  0.2269E+02
     -9.132  0.5411E+01  0.5411E+01  0.2287E+02  0.2287E+02
     -9.101  0.4430E+01  0.4430E+01  0.2301E+02  0.2301E+02
     -9.070  0.4460E+01  0.4460E+01  0.2316E+02  0.2316E+02
     -9.039  0.4539E+01  0.4539E+01  0.2330E+02  0.2330E+02
     -9.008  0.4672E+01  0.4672E+01  0.2343E+02  0.2343E+02
     -8.977  0.4395E+01  0.4395E+01  0.2358E+02  0.2358E+02
     -8.946  0.4087E+01  0.4087E+01  0.2371E+02  0.2371E+02
     -8.915  0.4024E+01  0.4024E+01  0.2383E+02  0.2383E+02
     -8.884  0.3954E+01  0.3954E+01  0.2396E+02  0.2396E+02
     -8.853  0.3845E+01  0.3845E+01  0.2408E+02  0.2408E+02
     -8.822  0.3843E+01  0.3843E+01  0.2420E+02  0.2420E+02
     -8.791  0.3748E+01  0.3748E+01  0.2432E+02  0.2432E+02
     -8.760  0.3747E+01  0.3747E+01  0.2443E+02  0.2443E+02
     -8.729  0.3608E+01  0.3608E+01  0.2455E+02  0.2455E+02
     -8.699  0.3626E+01  0.3626E+01  0.2466E+02  0.2466E+02
     -8.668  0.3692E+01  0.3692E+01  0.2477E+02  0.2477E+02
     -8.637  0.3532E+01  0.3533E+01  0.2488E+02  0.2488E+02
     -8.606  0.3907E+01  0.3907E+01  0.2499E+02  0.2499E+02
     -8.575  0.3195E+01  0.3195E+01  0.2510E+02  0.2510E+02
     -8.544  0.3547E+01  0.3547E+01  0.2520E+02  0.2520E+02
     -8.513  0.3516E+01  0.3516E+01  0.2531E+02  0.2531E+02
     -8.482  0.3279E+01  0.3279E+01  0.2542E+02  0.2542E+02
     -8.451  0.3229E+01  0.3229E+01  0.2552E+02  0.2552E+02
     -8.420  0.3195E+01  0.3195E+01  0.2563E+02  0.2563E+02
     -8.389  0.3422E+01  0.3422E+01  0.2573E+02  0.2573E+02
     -8.358  0.3286E+01  0.3286E+01  0.2583E+02  0.2583E+02
     -8.327  0.3223E+01  0.3223E+01  0.2593E+02  0.2593E+02